Dissociation of H2CO --> H2 + CO                                        
ADMP      RB3LYP                                                      3-21G               
Number of atoms                            I                4
Info1-9                                    I   N=           9
          20          20           0           0           8         110
           2          18        -502
Full Title                                 C   N=           3
Dissociation of H2CO --> H2 + CO    
Route                                      C   N=           3
# B3LYP/3-21G ADMP Geom=Crowd       
Charge                                     I                0
Multiplicity                               I                1
Number of electrons                        I               16
Number of alpha electrons                  I                8
Number of beta electrons                   I                8
Number of basis functions                  I               22
Number of independent functions            I               22
Number of point charges in /Mol/           I                0
Number of translation vectors              I                0
Atomic numbers                             I   N=           4
           6           8           1           1
Nuclear charges                            R   N=           4
  6.00000000E+00  8.00000000E+00  1.00000000E+00  1.00000000E+00
Current cartesian coordinates              R   N=          12
 -1.05296000E-01  2.13051949E-02 -9.93597268E-01 -8.08047583E-02 -7.15466773E-03
  1.03876602E+00  2.78161003E+00  3.69436328E-02 -1.57755172E+00 -2.45438451E-01
 -1.77071169E-01 -3.07782637E+00
Number of symbols in /Mol/                 I                0
Force Field                                I                0
Atom Types                                 C   N=           4
                                                
Int Atom Types                             I   N=           4
           0           0           0           0
MM charges                                 R   N=           4
  0.00000000E+00  0.00000000E+00  0.00000000E+00  0.00000000E+00
Integer atomic weights                     I   N=           4
          12          16           1           1
Real atomic weights                        R   N=           4
  1.20000000E+01  1.59949146E+01  1.00782504E+00  1.00782504E+00
Atom fragment info                         I   N=           4
           0           0           0           0
Atom residue num                           I   N=           4
           0           0           0           0
Nuclear spins                              I   N=           4
           0           0           1           1
Nuclear ZEff                               R   N=           4
 -3.60000000E+00 -5.60000000E+00 -1.00000000E+00 -1.00000000E+00
Nuclear QMom                               R   N=           4
  0.00000000E+00  0.00000000E+00  0.00000000E+00  0.00000000E+00
Nuclear GFac                               R   N=           4
  0.00000000E+00  0.00000000E+00  2.79284600E+00  2.79284600E+00
MicOpt                                     I   N=           4
          -1          -1          -1          -1
Number of residues                         I                0
Number of secondary structures             I                0
Number of contracted shells                I               10
Number of primitive shells                 I               18
Pure/Cartesian d shells                    I                1
Pure/Cartesian f shells                    I                0
Highest angular momentum                   I                1
Largest degree of contraction              I                3
Shell types                                I   N=          10
           0          -1          -1           0          -1          -1
           0           0           0           0
Number of primitives per shell             I   N=          10
           3           2           1           3           2           1
           2           1           2           1
Shell to atom map                          I   N=          10
           1           1           1           2           2           2
           3           3           4           4
Primitive exponents                        R   N=          18
  1.72256000E+02  2.59109000E+01  5.53335000E+00  3.66498000E+00  7.70545000E-01
  1.95857000E-01  3.22037000E+02  4.84308000E+01  1.04206000E+01  7.40294000E+00
  1.57620000E+00  3.73684000E-01  5.44717800E+00  8.24547240E-01  1.83191580E-01
  5.44717800E+00  8.24547240E-01  1.83191580E-01
Contraction coefficients                   R   N=          18
  6.17669074E-02  3.58794043E-01  7.00713084E-01 -3.95895162E-01  1.21583436E+00
  1.00000000E+00  5.92393934E-02  3.51499961E-01  7.07657921E-01 -4.04453583E-01
  1.22156176E+00  1.00000000E+00  1.56284979E-01  9.04690877E-01  1.00000000E+00
  1.56284979E-01  9.04690877E-01  1.00000000E+00
P(S=P) Contraction coefficients            R   N=          18
  0.00000000E+00  0.00000000E+00  0.00000000E+00  2.36459947E-01  8.60618806E-01
  1.00000000E+00  0.00000000E+00  0.00000000E+00  0.00000000E+00  2.44586107E-01
  8.53955373E-01  1.00000000E+00  0.00000000E+00  0.00000000E+00  0.00000000E+00
  0.00000000E+00  0.00000000E+00  0.00000000E+00
Coordinates of each shell                  R   N=          30
 -1.05296000E-01  2.13051949E-02 -9.93597268E-01 -1.05296000E-01  2.13051949E-02
 -9.93597268E-01 -1.05296000E-01  2.13051949E-02 -9.93597268E-01 -8.08047583E-02
 -7.15466773E-03  1.03876602E+00 -8.08047583E-02 -7.15466773E-03  1.03876602E+00
 -8.08047583E-02 -7.15466773E-03  1.03876602E+00  2.78161003E+00  3.69436328E-02
 -1.57755172E+00  2.78161003E+00  3.69436328E-02 -1.57755172E+00 -2.45438451E-01
 -1.77071169E-01 -3.07782637E+00 -2.45438451E-01 -1.77071169E-01 -3.07782637E+00
Constraint Structure                       R   N=          12
  0.00000000E+00  0.00000000E+00  0.00000000E+00  0.00000000E+00  0.00000000E+00
  2.17839329E+00  2.99155872E+00  0.00000000E+00 -1.38349688E+00  5.73219641E-01
  0.00000000E+00 -1.98656573E+00
Num ILSW                                   I              100
ILSW                                       I   N=         100
           0           1           0           0           2           0
           0           0           0           0         402          -1
           0           0           0           0           0           0
           0           0           1           0           0           1
           1           1           0           0           0           0
           0           0      100000           0          -1           0
           0           0           0           0           0           0
           0           0           0           1           0           0
           0           0           1           0           0           0
           0           0           4          40           0           0
           0           0           5           0           0           0
           0           0           0           0           0           0
           0           0           0           0           0           0
           0           0           0           0           0           0
           0           0           0           0           0           0
           0           0           0           0           0           0
           0           0           0           0
Num RLSW                                   I               40
RLSW                                       R   N=          40
  8.00000000E-01  7.20000000E-01  1.00000000E+00  8.10000000E-01  2.00000000E-01
  0.00000000E+00  0.00000000E+00  1.00000000E+00  0.00000000E+00  0.00000000E+00
  0.00000000E+00  0.00000000E+00  1.00000000E+00  0.00000000E+00  0.00000000E+00
  0.00000000E+00  0.00000000E+00  1.00000000E+00  0.00000000E+00  0.00000000E+00
  0.00000000E+00  0.00000000E+00  1.00000000E+00  0.00000000E+00  0.00000000E+00
  0.00000000E+00  0.00000000E+00  1.00000000E+00  0.00000000E+00  0.00000000E+00
  0.00000000E+00  0.00000000E+00  1.00000000E+00  0.00000000E+00  0.00000000E+00
  0.00000000E+00  0.00000000E+00  0.00000000E+00  1.00000000E+00  1.00000000E+00
MxBond                                     I                2
NBond                                      I   N=           4
           2           1           0           1
IBond                                      I   N=           8
           2           4           1           0           0           0
           1           0
RBond                                      R   N=           8
  2.00000000E+00  1.00000000E+00  2.00000000E+00  0.00000000E+00  0.00000000E+00
  0.00000000E+00  1.00000000E+00  0.00000000E+00
Virial Ratio                               R      2.003991495542235E+00
SCF Energy                                 R     -1.137094134061349E+02
Total Energy                               R     -1.137094134061349E+02
RMS Force                                  R      1.327315991104673E-01
RMS Density                                R      2.000000000000000E+00
External E-field                           R   N=          35
  0.00000000E+00  0.00000000E+00  0.00000000E+00  0.00000000E+00  0.00000000E+00
  0.00000000E+00  0.00000000E+00  0.00000000E+00  0.00000000E+00  0.00000000E+00
  0.00000000E+00  0.00000000E+00  0.00000000E+00  0.00000000E+00  0.00000000E+00
  0.00000000E+00  0.00000000E+00  0.00000000E+00  0.00000000E+00  0.00000000E+00
  0.00000000E+00  0.00000000E+00  0.00000000E+00  0.00000000E+00  0.00000000E+00
  0.00000000E+00  0.00000000E+00  0.00000000E+00  0.00000000E+00  0.00000000E+00
  0.00000000E+00  0.00000000E+00  0.00000000E+00  0.00000000E+00  0.00000000E+00
IOpCl                                      I                0
IROHF                                      I                0
Alpha Orbital Energies                     R   N=          22
 -1.91454994E+01 -1.02749971E+01 -1.17605875E+00 -6.63981362E-01 -5.18013163E-01
 -4.70916346E-01 -4.67817473E-01 -2.13551086E-01 -5.76028853E-02  1.56343879E-03
  5.81066911E-02  3.67832233E-01  6.41278694E-01  7.00321239E-01  7.76354390E-01
  9.94547677E-01  1.00384592E+00  1.20645250E+00  1.43171863E+00  1.46621917E+00
  1.49926186E+00  3.17977897E+00
Alpha MO coefficients                      R   N=         484
  8.31330230E-04  3.35626392E-03  1.20766182E-05  1.23641878E-16  2.00766025E-03
  1.68126848E-02 -1.62364058E-03  8.31701448E-17  3.09188980E-02  9.82845488E-01
  1.08185337E-01 -1.79212361E-04  2.88942514E-16 -4.83228615E-03 -6.64845094E-02
  7.61668080E-04 -1.82697467E-16  1.75761463E-02  9.07343137E-04 -3.40278585E-03
  2.20204155E-03  1.40429295E-02  9.84805003E-01  1.01792743E-01  1.96755150E-03
 -5.60759788E-17  3.64648200E-03 -3.71840420E-02 -5.45551809E-03  5.27844163E-17
  1.57600255E-02  3.97936399E-04  1.96699542E-03 -3.99879097E-04  1.64311408E-16
  1.62361101E-03 -1.08727739E-02  1.80731593E-03 -1.63799965E-16  9.29954577E-03
  9.51625072E-04  1.88710239E-03 -1.08010143E-03  1.76090973E-02 -1.25892712E-01
  1.35640291E-01  5.57930002E-03 -3.00692646E-16  1.94356058E-01  1.03257072E-01
  1.41937125E-02  8.74276867E-17 -1.06380564E-01 -2.13901223E-01  2.05285178E-01
  2.08534556E-03  2.00010612E-16 -1.73791804E-01  6.72162869E-01 -2.38904265E-03
 -4.03290556E-16 -1.56537543E-01  7.27916765E-04  1.08298993E-02  9.33635893E-03
 -7.57882449E-02 -1.60703846E-01  1.85816805E-01  8.34955569E-02 -1.88481807E-16
 -2.17669578E-01  4.52521326E-01  6.87263172E-02 -5.49445900E-18 -1.63813786E-01
  6.84131184E-02 -7.39892008E-02  3.78152071E-02  1.55532005E-17 -5.97848769E-02
 -2.27850687E-01  1.87214342E-02  2.44604557E-16 -5.86621297E-02  7.19326764E-02
  4.61153864E-02  2.55029600E-01  9.57317556E-02  5.76526815E-02 -9.57221158E-02
  6.23459141E-02 -7.82169381E-16 -2.88362505E-01 -7.18157454E-02  3.50530029E-02
 -1.01535713E-16  1.24071812E-02 -1.17547031E-01  1.07288290E-01  5.54420754E-02
 -7.59649376E-16  4.24466425E-01  4.57953491E-01  4.97834526E-02 -9.50179896E-16
  3.73980543E-01  3.14668532E-02  2.51966213E-02  1.05170324E-01  1.45792468E-01
  2.63260872E-15 -2.66150705E-15  2.92573798E-14  3.13511516E-01  9.80655435E-15
 -8.04007631E-15  2.45104185E-14  2.53839665E-01  3.76730229E-15  7.57725247E-16
 -2.55833659E-16  4.13968611E-14  4.33433858E-01 -5.35841915E-15 -4.27869406E-15
  3.94453386E-14  4.20811383E-01 -4.10874694E-15  3.17509487E-15  4.90257179E-15
 -4.40558299E-15 -6.89815486E-15  2.64298583E-02 -2.73197368E-02  2.95525091E-01
 -3.05951237E-14  1.03841599E-01 -9.06515782E-02  2.46080851E-01 -2.46705043E-14
  1.83602799E-02  8.90231127E-03 -6.49966668E-03  4.23913244E-01 -4.19345146E-14
 -6.25431358E-02 -3.23109974E-02  4.03955249E-01 -4.13838044E-14 -5.59426969E-02
  3.12575746E-02  4.74246779E-02 -4.72179403E-02 -7.63926112E-02  6.82462793E-02
 -6.84433840E-02  1.73167690E-01 -6.52908998E-17  1.38515387E-01 -3.77099488E-01
  1.94451706E-01  1.24205238E-16  1.94782403E-01 -1.70036056E-03  1.12388157E-02
 -2.65648719E-01 -2.92438045E-16 -4.20522042E-02 -3.35200021E-02 -3.22044324E-01
 -1.88322574E-16 -2.70374799E-02  2.51331174E-01  5.85447821E-01  1.64549004E-03
  1.09540362E-01  1.71235143E-17 -8.23540588E-17 -4.29194282E-16  4.58957988E-01
 -4.30935174E-17 -5.83990298E-17 -4.62027150E-16  6.24320756E-01  3.53667834E-16
 -1.39625617E-17  7.39618446E-17  1.98126471E-16 -3.68671143E-01  7.32270678E-17
 -1.89344057E-16  2.37869032E-16 -5.13960402E-01  5.46422769E-17  1.06039403E-16
  5.86906829E-16  7.54611200E-18  2.21084408E-16  7.41697243E-03 -3.94016189E-02
 -4.58553623E-01 -5.33854097E-16  4.21266777E-02  4.50625311E-02 -6.16697959E-01
 -8.11380127E-16  1.48531914E-01  1.35279734E-02 -6.99128436E-03  2.63154472E-01
  3.13285052E-16  3.14569139E-02 -1.47453245E-01  3.92458619E-01  5.69085705E-16
  7.06913660E-02  1.71547752E-01  6.96419717E-01 -1.22052589E-01 -3.92114139E-02
 -1.30444874E-01  6.04068166E-02  9.88999770E-02  1.28106442E-16 -1.25291687E-01
  1.54438042E+00  2.46682464E-01 -1.65302816E-17 -1.37372908E-01  5.32875331E-02
 -4.71115186E-02 -7.44067961E-02 -1.58180738E-16  1.83709967E-01 -4.58369461E-01
 -1.18620267E-01  4.29795072E-17  3.22669862E-01  3.44782997E-02  2.29381724E-01
 -2.34595815E-01 -1.41533876E+00 -1.33586583E-02 -1.23725452E-01  1.30805061E-01
 -1.75920472E-15  2.76864550E-01  4.15541788E-01 -2.03762981E-01  2.45935209E-15
  2.25678407E+00  1.27397242E-01 -5.41846739E-02 -3.22746387E-03 -2.14654605E-16
  1.36972813E-01 -1.78914788E+00  3.32709668E-02 -2.17471741E-16  6.85011398E-01
 -1.02985329E-01 -4.02702381E-01 -1.79606154E-01  2.03429086E+00 -3.00283325E-17
  1.56518062E-15  1.49698341E-15 -1.03944601E+00 -1.94688820E-15 -2.86325378E-15
 -1.79202621E-15  1.07442950E+00 -6.58370292E-15 -5.61648717E-16  1.04965903E-15
  5.38652013E-17 -2.98466342E-02  2.06588448E-16  5.47840066E-15  1.33106395E-16
 -1.31893531E-01 -2.88305955E-15 -1.43357706E-15  4.37360166E-15  7.82161836E-16
 -7.38757290E-15 -6.34677858E-03  4.97460301E-02 -9.75840727E-01 -1.17280230E-15
 -2.01436697E-01  4.18656132E-02  1.10339418E+00  2.18599794E-15  7.73858686E-01
  2.17536364E-02 -1.97510415E-02 -3.02134610E-02 -8.04877892E-16 -3.93614253E-02
 -4.29525885E-01 -1.41450787E-01  5.63870830E-17  7.03136724E-02  5.91683402E-02
 -4.97749656E-01  2.63051199E-01  3.34122778E-01  5.59840698E-02 -1.13885545E-01
  2.74903441E-01  2.15111580E-15 -8.66273258E-01 -4.36579770E-01 -6.28722965E-01
 -1.19151548E-15  1.42618685E+00 -1.17043931E-02  1.40642270E-02  7.90573692E-02
  5.04202919E-17 -2.68616457E-01 -4.01075763E-01  7.74328273E-02 -2.57351755E-16
 -2.29572195E-01 -3.37324365E-01  6.57741944E-01  5.42963397E-01  2.20740692E-01
 -1.48083760E-02  3.98983579E-01 -7.54616311E-02  1.49140801E-15  6.59739413E-01
  4.52917132E-03 -1.31808176E-01 -1.78875004E-15 -4.71281334E-01  3.60203042E-02
 -6.39914185E-02 -1.89340706E-02  6.56085140E-17  2.38141428E-01  1.75797116E-02
  4.83511215E-02  7.91419377E-16  2.29883153E-01 -9.16711857E-01  1.11892854E+00
  6.26623458E-01 -1.03584980E+00  2.44900995E-02 -1.68037971E-01  1.35492264E-01
 -1.33086399E-15  4.51117215E-01  8.40661057E-01 -1.52986755E-01  2.70038306E-16
  2.96655192E-01  5.26594602E-02 -7.92693225E-02  1.89315068E-01 -2.26882983E-15
  4.22665360E-03 -5.36969280E-01 -1.02636550E-01  2.75680901E-15  4.00855642E-01
  7.82247056E-01 -5.56049245E-01  9.76645774E-01 -7.38710940E-01  7.98937194E-02
 -1.46621417E+00 -1.27596106E-01 -1.50657530E-15  1.86886462E-01  1.92179448E+00
  2.69339035E-01  1.28368611E-15 -9.47588939E-01 -2.40790213E-02  4.68573110E-02
 -2.55452809E-01 -2.02603040E-16 -2.97488986E-01  1.11272123E-01  1.80331927E-01
 -6.93016372E-17  1.13425824E-01 -2.86093564E-01  1.35786003E-01  4.50078005E-02
 -1.19156682E+00  5.66035424E-16  1.02940448E-14  6.32338290E-16  3.17802264E-03
  1.67848159E-15 -1.25583807E-15  1.44174459E-17 -3.54322690E-01  1.08853822E-15
  9.84289401E-16 -3.16690552E-15  1.00164149E-15 -1.01902966E+00 -1.69336439E-14
 -1.83865791E-15 -1.30484726E-15  1.13267239E+00  2.21510427E-14 -3.85380181E-15
  3.36594527E-15 -5.76710481E-15  4.93980002E-15  3.46576192E-02  6.23700858E-01
  8.60176741E-03 -1.49700405E-15  1.74537115E-01  7.31834662E-02 -4.34276460E-02
  6.99077850E-15  1.98023562E-01  6.08817095E-02 -1.68492674E-01 -4.07078935E-02
  1.88886505E-14 -9.34010126E-01 -2.59098372E-01  5.07726823E-02 -2.02302958E-14
  1.35353210E+00 -3.89466120E-02  5.74829814E-02 -8.16857886E-02  1.18993532E-01
 -7.31365177E-03  3.40510949E-01  9.34535090E-02 -1.29230767E-16 -6.18334060E-02
 -5.39593851E-01 -6.04930873E-01 -1.52005266E-15  4.93036855E-01  1.44214844E-02
 -5.66004746E-02 -9.64109237E-01 -2.17378891E-15  9.97741175E-02 -1.13781057E-01
  1.16208813E+00  3.33774808E-15 -5.80334778E-02  2.41282511E-01  2.59403673E-03
  2.32146666E-01  3.08575533E-01 -2.61841798E-02 -3.55180637E-01 -1.95694165E-03
 -2.88873275E-15 -2.50319446E-01 -8.63904783E-01  1.20912522E-01  1.52760002E-15
 -1.75040119E+00  3.76721328E-02 -1.81048450E+00  3.28359393E-02  4.82104405E-16
  2.03652195E-01  3.27027975E+00 -7.81922635E-02 -9.55825416E-16 -1.10561547E+00
 -7.02331998E-02  1.87677228E-01 -1.96078382E-01 -7.68601985E-01
Total SCF Density                          R   N=         253
  2.03596662E+00  9.83380603E-02  1.60788015E-01  1.29982702E-02 -1.59256603E-02
  3.02647231E-01  9.70358744E-04 -1.73017527E-03  6.97655048E-03  2.34720089E-01
 -1.09280675E-03  2.99695828E-02  2.39350849E-02  4.10755685E-03  4.03962665E-01
 -2.44786635E-01  1.88573496E-01 -3.99866217E-02 -4.32526166E-04 -1.66029137E-01
  3.99467107E-01  4.32843588E-03 -1.60139565E-02  2.45471916E-01  6.62953917E-03
  1.34096639E-02 -3.21734352E-02  2.06210707E-01  4.91853379E-03 -2.39310403E-03
  7.80514447E-03  1.72389427E-01  8.56089482E-04 -1.69638198E-03  8.04634810E-03
  1.26803193E-01  1.35774985E-01 -1.09286775E-01  3.75424762E-02  1.14008864E-02
  2.46573581E-02 -1.87120686E-01  3.97043991E-02  1.07714220E-02  1.14806089E-01
  2.99316895E-02 -1.18571882E-02  2.31354887E-03  1.19612037E-03 -4.87888945E-02
  6.81779094E-02  1.41492424E-02  3.53209651E-03  9.39872864E-02  2.06060787E+00
 -2.14135672E-02  1.77898693E-02 -2.86338969E-04 -9.91769648E-04  6.19296758E-02
 -2.51304794E-02 -5.08423483E-03 -8.60218906E-04 -7.01046285E-03  9.48561169E-02
  1.40675681E-01 -7.50070800E-03  1.41621513E-02  1.50620411E-01 -1.13210344E-02
 -1.89863578E-02  3.46025316E-02  6.62031023E-02 -1.49055490E-02 -6.69171378E-02
 -7.74209445E-03  6.44658740E-03  5.41920606E-01 -5.69278766E-03  7.67899016E-03
 -8.48725372E-03  2.85358662E-01 -1.85735221E-03  1.84289971E-02 -9.75781657E-03
  2.08820670E-01 -7.24374825E-04  1.14759729E-03 -4.71412057E-04  1.27424453E-02
  3.50935324E-01  1.21126691E-01 -1.59781136E-01  6.72539354E-03  7.33035177E-03
 -3.21173750E-01 -9.94494164E-02  1.17067128E-02  9.03194068E-03  9.57274297E-02
 -3.91886412E-02  1.90634418E-02 -1.56646323E-02  2.33322303E-03  4.60194103E-01
 -1.02360495E-01  3.43716640E-02 -3.76892135E-02 -1.10708344E-02  8.32012019E-02
 -7.11037573E-02 -5.49010433E-02 -1.00470639E-02 -6.90512715E-02 -5.67758506E-01
  3.77406232E-01  6.39824649E-02 -4.65126824E-03  1.89107987E-01  1.40044171E+00
 -8.64345205E-03  1.88531599E-02  9.89521163E-02 -1.42289094E-02 -2.06366797E-02
  4.33998369E-02  1.83986991E-02 -1.83495426E-02 -8.10987740E-02 -9.61541202E-03
  7.32712322E-03  5.64298641E-01  1.56056227E-02 -2.27987070E-02  7.80112546E-02
  6.00541220E-01 -9.32043293E-03  1.00564883E-02 -1.20732476E-02  2.71197358E-01
 -4.85372819E-03  2.37145859E-02 -1.33721811E-02  1.98289421E-01 -4.86441089E-03
 -1.41374022E-03 -6.21394309E-04  1.77777779E-02  3.34476819E-01  1.19076840E-03
 -2.06002419E-03  2.19208544E-02  3.19031494E-01  1.22747770E-01 -1.34736539E-01
  1.19950501E-02  7.76679245E-03 -2.61048475E-01 -9.36996386E-02  1.55850355E-02
  9.01690517E-03  8.67755942E-02  2.21499770E-03  2.84822567E-02 -1.80404570E-02
  2.78670241E-03  3.88824154E-01  1.78506121E-01 -2.58521037E-02  1.42108851E-03
  3.30566870E-01 -5.85352872E-03  4.79809998E-03  1.43901180E-01  9.96069140E-03
 -7.09277617E-03  8.08478066E-03  1.38316437E-01  1.16037537E-02  2.97118873E-02
  6.65292575E-03 -6.59463308E-03 -1.00716718E-01 -7.34444691E-03  1.04943557E-02
 -5.56530314E-02 -1.43606631E-01 -1.11102126E-02  1.36995156E-02  1.38182714E-01
  2.55621079E-02 -2.57731983E-02  2.59218062E-01  2.18443711E-02  4.96708636E-03
 -5.25943542E-02  2.64639564E-01  2.61997404E-02  1.02491850E-01  5.43501036E-03
 -6.79898799E-03 -3.17040035E-01 -2.03492752E-02  5.36950076E-02 -9.77346227E-02
 -4.07971222E-01 -2.96131959E-02  5.75709797E-02  2.93140133E-01  6.54588079E-01
 -7.81087183E-02  8.56913417E-02 -5.40348501E-02 -1.22070267E-02 -1.83770041E-01
  2.26781005E-01 -4.77624938E-02 -9.88931059E-03 -1.03781920E-01  1.04576730E-02
 -9.66538308E-03  4.62137569E-02  1.80432005E-04  4.87591848E-02  2.32658025E-02
  5.98205101E-02  4.82953260E-03  3.40140149E-02 -2.38056318E-02 -8.80495297E-02
  1.63358220E-01  2.70458942E-02  1.38793182E-02 -3.81680325E-02 -1.29841078E-03
 -1.84755785E-01  1.09830755E-01 -3.18306624E-02 -7.32668659E-04 -3.37769976E-02
  4.76255479E-02 -2.03069892E-02  2.47534687E-02  6.39327392E-03  1.24014466E-01
 -2.15354840E-02  3.31438462E-02  8.61790135E-03  1.00035033E-01 -1.75933306E-02
 -5.23358889E-02  1.05616693E-01  9.32772696E-02
Grdnt Energy                               R      0.000000000000000E+00
Grdnt NVar                                 I                5
Grdnt IGetFC                               I                0
Internal Forces                            R   N=           5
  0.00000000E+00  0.00000000E+00  0.00000000E+00  0.00000000E+00  0.00000000E+00
Internal Force Constants                   R   N=          15
  0.00000000E+00  0.00000000E+00  0.00000000E+00  0.00000000E+00  0.00000000E+00
  0.00000000E+00  0.00000000E+00  0.00000000E+00  0.00000000E+00  0.00000000E+00
  0.00000000E+00  0.00000000E+00  0.00000000E+00  0.00000000E+00  0.00000000E+00
QEq coupling tensors                       R   N=          24
  1.20172919E-01  3.75458439E-02 -2.65664104E-01  1.14927477E-01  2.26577837E-02
  1.45491185E-01  1.48998466E+00  2.00999235E-01 -1.46659785E+00 -2.21062726E-01
  4.04271140E-02 -2.33868159E-02 -4.79750978E-02 -4.01741168E-03  3.38746442E-02
  1.17508835E-02  2.04365128E-05  1.41004537E-02  1.40647237E-01 -3.04160410E-03
  1.12797140E-01 -5.12952305E-02 -3.27832599E-02 -2.53444377E-01
Mulliken Charges                           R   N=           4
  2.12355700E-01 -2.97643665E-01 -2.38959321E-01  3.24247286E-01
Trajectory MaxStp                          I               51
Trajectory MaxJob                          I                1
Trajectory Job offset                      I                0
Trajectory Num results per geometry        I               16
Trajectory Num geometry variables          I               12
Traj num       1 Results for each geomet   R   N=         816
  0.00000000E+00  0.00000000E+00  1.00000000E-01  0.00000000E+00 -1.13720519E+02
  0.00000000E+00 -1.13620519E+02  2.20406525E-14  1.06581410E-14  1.42108547E-14
  5.07595134E-16  1.06581410E-14  1.42108547E-14  5.07595134E-16  1.87516588E-01
  0.00000000E+00  1.00000000E-01  0.00000000E+00  9.88633826E-02  1.67173750E-05
 -1.13719385E+02  0.00000000E+00 -1.13620504E+02  1.76737334E-14 -8.88178420E-16
  8.88178420E-16  4.06170599E-16 -8.88178420E-16  8.88178420E-16  4.06170599E-16
  1.86446126E-01  0.00000000E+00  2.00000000E-01  0.00000000E+00  9.68590573E-02
  2.35833875E-04 -1.13717566E+02  0.00000000E+00 -1.13620471E+02  1.11197994E-14
 -8.88178420E-16 -2.83018053E-11  6.85852176E-13 -8.88178420E-16 -2.83018053E-11
  6.85852176E-13  1.84539648E-01  0.00000000E+00  3.00000000E-01  0.00000000E+00
  9.41771186E-02  9.65731128E-04 -1.13715594E+02  0.00000000E+00 -1.13620451E+02
  1.77358188E-14  1.77635684E-15  9.37383504E-12  2.27045040E-13  1.77635684E-15
  9.37383504E-12  2.27045040E-13  1.81952777E-01  0.00000000E+00  4.00000000E-01
  0.00000000E+00  9.10886136E-02  2.26383532E-03 -1.13713813E+02  0.00000000E+00
 -1.13620461E+02  1.54968652E-14  1.77635684E-15  1.04556364E-11  2.53531504E-13
  1.77635684E-15  1.04556364E-11  2.53531504E-13  1.78922414E-01  0.00000000E+00
  5.00000000E-01  0.00000000E+00  8.78725800E-02  3.76790047E-03 -1.13712127E+02
  0.00000000E+00 -1.13620486E+02  1.94792565E-14  0.00000000E+00  8.72191208E-12
  2.11289387E-13  0.00000000E+00  8.72191208E-12  2.11289387E-13  1.75706633E-01
  0.00000000E+00  6.00000000E-01  0.00000000E+00  8.47481969E-02  4.93587577E-03
 -1.13710184E+02  0.00000000E+00 -1.13620500E+02  1.74906711E-14 -8.88178420E-16
 -2.84305912E-11  6.89034140E-13 -8.88178420E-16 -2.84305912E-11  6.89034140E-13
  1.72519750E-01  0.00000000E+00  7.00000000E-01  0.00000000E+00  8.18302372E-02
  5.45795542E-03 -1.13707779E+02  0.00000000E+00 -1.13620491E+02  1.96605050E-14
  0.00000000E+00 -9.75486358E-12  2.36482830E-13  0.00000000E+00 -9.75486358E-12
  2.36482830E-13  1.69480572E-01  0.00000000E+00  8.00000000E-01  0.00000000E+00
  7.91157813E-02  5.43999579E-03 -1.13705027E+02  0.00000000E+00 -1.13620471E+02
  2.17935917E-14  1.77635684E-15 -2.15889528E-11  5.23361465E-13  1.77635684E-15
 -2.15889528E-11  5.23361465E-13  1.66587944E-01  0.00000000E+00  9.00000000E-01
  0.00000000E+00  7.65018255E-02  5.21631648E-03 -1.13702179E+02  0.00000000E+00
 -1.13620461E+02  2.17771423E-14 -8.88178420E-16  9.68203295E-12  2.34646360E-13
 -8.88178420E-16  9.68203295E-12  2.34646360E-13  1.63729637E-01  0.00000000E+00
  1.00000000E+00  0.00000000E+00  7.38281405E-02  5.03331190E-03 -1.13699327E+02
  0.00000000E+00 -1.13620466E+02  2.40564912E-14  1.77635684E-15 -3.51887408E-11
  8.53188445E-13  1.77635684E-15 -3.51887408E-11  8.53188445E-13  1.60721067E-01
  0.00000000E+00  1.10000000E+00  0.00000000E+00  7.09349338E-02  4.93092072E-03
 -1.13696338E+02  0.00000000E+00 -1.13620473E+02  2.18087126E-14  0.00000000E+00
  2.66240363E-11  6.45474253E-13  0.00000000E+00  2.66240363E-11  6.45474253E-13
  1.57362225E-01  0.00000000E+00  1.20000000E+00  0.00000000E+00  6.77194670E-02
  4.87320063E-03 -1.13693061E+02  0.00000000E+00 -1.13620468E+02  2.62787886E-14
  0.00000000E+00 -2.02238226E-11  4.90270279E-13  0.00000000E+00 -2.02238226E-11
  4.90270279E-13  1.53496299E-01  0.00000000E+00  1.30000000E+00  0.00000000E+00
  6.41731571E-02  4.89463550E-03 -1.13689524E+02  0.00000000E+00 -1.13620456E+02
  2.85883115E-14  1.77635684E-15 -3.33706396E-11  8.08795608E-13  1.77635684E-15
 -3.33706396E-11  8.08795608E-13  1.49052979E-01  0.00000000E+00  1.40000000E+00
  0.00000000E+00  6.03857543E-02  5.06451292E-03 -1.13685900E+02  0.00000000E+00
 -1.13620450E+02  2.18432676E-14  0.00000000E+00 -3.80335763E-11  9.22026607E-13
  0.00000000E+00 -3.80335763E-11  9.22026607E-13  1.44063862E-01  0.00000000E+00
  1.50000000E+00  0.00000000E+00  5.65161773E-02  5.34340782E-03 -1.13682314E+02
  0.00000000E+00 -1.13620455E+02  2.63143871E-14  0.00000000E+00 -3.23634453E-11
  7.84511037E-13  0.00000000E+00 -3.23634453E-11  7.84511037E-13  1.38646165E-01
  0.00000000E+00  1.60000000E+00  0.00000000E+00  5.27437094E-02  5.55235402E-03
 -1.13678758E+02  0.00000000E+00 -1.13620462E+02  2.19356066E-14  0.00000000E+00
 -2.00133243E-11  4.85064190E-13  0.00000000E+00 -2.00133243E-11  4.85064190E-13
  1.32961382E-01  0.00000000E+00  1.70000000E+00  0.00000000E+00  4.92198929E-02
  5.52249092E-03 -1.13675205E+02  0.00000000E+00 -1.13620462E+02  2.61833527E-14
  1.77635684E-15  4.03996836E-11  9.79275204E-13  1.77635684E-15  4.03996836E-11
  9.79275204E-13  1.27163647E-01  0.00000000E+00  1.80000000E+00  0.00000000E+00
  4.60376770E-02  5.25234221E-03 -1.13671747E+02  0.00000000E+00 -1.13620457E+02
  2.18080839E-14  0.00000000E+00 -2.09929851E-11  5.09389309E-13  0.00000000E+00
 -2.09929851E-11  5.09389309E-13  1.21355108E-01  0.00000000E+00  1.90000000E+00
  0.00000000E+00  4.32246617E-02  4.88289365E-03 -1.13668564E+02  0.00000000E+00
 -1.13620457E+02  1.96932404E-14  1.77635684E-15  9.68647385E-12  2.34673157E-13
  1.77635684E-15  9.68647385E-12  2.34673157E-13  1.15562120E-01  0.00000000E+00
  2.00000000E+00  0.00000000E+00  4.07581439E-02  4.52747331E-03 -1.13665752E+02
  0.00000000E+00 -1.13620467E+02  2.62757340E-14  1.77635684E-15  1.23403510E-11
  2.99172740E-13  1.77635684E-15  1.23403510E-11  2.99172740E-13  1.09738259E-01
  0.00000000E+00  2.10000000E+00  0.00000000E+00  3.85940829E-02  4.17273586E-03
 -1.13663245E+02  0.00000000E+00 -1.13620478E+02  2.39901177E-14  0.00000000E+00
  1.19158017E-11  2.88874141E-13  0.00000000E+00  1.19158017E-11  2.88874141E-13
  1.03791233E-01  0.00000000E+00  2.20000000E+00  0.00000000E+00  3.66992861E-02
  3.76641832E-03 -1.13660946E+02  0.00000000E+00 -1.13620480E+02  2.62422779E-14
  1.77635684E-15  8.57625082E-12  2.07858096E-13  1.77635684E-15  8.57625082E-12
  2.07858096E-13  9.76233789E-02  0.00000000E+00  2.30000000E+00  0.00000000E+00